C**TITLE
H2CS TEST....VCI FOR MAXIMUM OF 4 COUPLED VIRTUAL QUANTA, RESTRICTED
C**NATOM,NSTAT,CONV,ICOUPL,ICOUPC,ISCFCI,IWHICH,IDISC,NOTTR,JMAX,MCHECK,INORM
    4     -1  1.D-2   4      4      50      1     0     0     0     0     1
C**ICI NMAX    CUT     EVLJ0  NVALR KSTEP IPRINT MATSIZ IREACT MOLPRO MOLINC
   -1   -4    1.0D+4    0.0      0    0     -2      0     0      0      0
C**XTANPM (DATA IGNORED IF MOLPRO.EQ.0 AND IWHICH.GE.0)
C**NCONT NVAL1 NVAL2 (DATA IGNORED IF NMAX.GE.0 OR ISCFCI.LE.0)
    1      0     0
C**ICONT JCONT (DATA IGNORED IF NMAX.GE.0 OR ISCFCI.LE.0)
    6   1 2 3 4 5 6
C**MAXSUM (DATA IGNORED IF NMAX.GE.0 OR ISCFCI.LE.0)
     4 4 4 4  
C**MAXBAS (DATA IGNORED IF NMAX.GE.0 OR ISCFCI.LE.0)
     4 4 4 4 4 4
     3 3 3 3 3 3
     2 2 2 2 2 2
     1 1 1 1 1 1
C**MODINT
     1 1 1 1 1 1
C**MEFF
     0 0 0 0 0 0
C**NCYCLE,TOLLAN,LANMAX,LGIV,LAN20 (LANCZOS PARAMETERS)
   -10    1.D-3   5000    1    0
C**NVSYM NWSYM
     4     3
C**NSYM ISYM (ORDER A1,B2,B1,A2)
     3    3 4 5
     2    1 6
     1    2
C**MVSYM   MWSYM
     4    1 2 3 4
C**IDUMP MDUMP LDUMP (DATA IGNORED IF ICI.GE.0)
     0     0     1
C**NBF,MBF,NVF
   14  17   4
   14  17   4
   14  17   4
   14  17   4
   14  17   4
   14  17   4
C**NUCLEAR SYMBOLS
 C S H H
C**SCF STATE DEFINITIONS (SEE ORIGINAL DEFINITION BY JELSKI)
C**NPOT (ONLY IF IWHICH=0)
C**IPOT,JPOT,CPOT (ONLY IF IWHICH=0 OR INORM=0)
C**NUCLEAR MASSES (XM(I),I=1,NATOM)
12.0 31.9720707 1.007825 1.007825
C**EQUILIBRIUM CARTESIAN COORDINATES ((X0(I,J),J=x,y,z),I=1,NATOM)
  0.000000000000E+00  0.000000000000E+00 -0.206903551204E+01
  0.000000000000E+00  0.000000000000E+00  0.975313245174E+00
  0.000000000000E+00  0.174203292E+01 -0.31525105E+01
  0.000000000000E+00 -0.174203292E+01 -0.31525105E+01
C**NORMAL COORDINATE DISPLACEMENTS (((XL(I,J,K),K=x,y,z),I=1,NATOM),J=1,NMODE)
C**USER-DEFINED POTENTIAL DATA
***RE1, RE2 & RE3
      1.0856000      1.0856000      1.6110000
***TH1, TH2 & PHI
    121.8800000    121.8800000    180.0000000
C**POT (HARTREES)
 147
 0 0 0 2 0 0   0.112361570921090
 0 0 0 3 0 0  -0.003153270000000
 0 0 0 4 0 0  -0.000343830000000
 0 0 0 0 2 0   0.112361570921090
 0 0 0 0 3 0  -0.003153270000000
 0 0 0 0 4 0  -0.000343830000000
 0 0 0 0 0 2   0.022651037852519
 0 0 0 0 0 4   0.002692428968751
 0 0 0 1 1 0   0.097387465805702
 0 0 0 2 1 0   0.060859070000000
 0 0 0 1 2 0   0.060859070000000
 0 0 0 1 0 2   0.058071990000000
 0 0 0 0 1 2   0.058071990000000
 0 0 0 3 1 0   0.001753670000000
 0 0 0 1 3 0   0.001753670000000
 0 0 0 2 2 0   0.013131000000000
 0 0 0 2 0 2   0.068944274365041
 0 0 0 0 2 2   0.068944274365041
 0 0 0 1 1 2   0.108397146313656
 1 0 0 1 0 0  -0.010076227215866
 1 0 0 2 0 0   0.007454083815035
 1 0 0 3 0 0   0.032169178459872
 1 0 0 0 1 0  -0.023647556794933
 1 0 0 0 2 0  -0.050835089105219
 1 0 0 0 3 0  -0.005904976697200
 1 0 0 0 0 2  -0.006264110000000
 1 0 0 1 1 0  -0.022328737274015
 1 0 0 2 1 0  -0.095980005394509
 1 0 0 1 2 0  -0.216435314892751
 1 0 0 1 0 2  -0.082961583856012
 1 0 0 0 1 2  -0.008477476841204
 2 0 0 0 0 0   0.204590508237577
 2 0 0 1 0 0  -0.007825720000000
 2 0 0 2 0 0  -0.016685800000000
 2 0 0 0 1 0  -0.016870430000000
 2 0 0 0 2 0  -0.018463830000000
 2 0 0 0 0 2  -0.005196506722370
 2 0 0 1 1 0  -0.027475840000000
 3 0 0 0 0 0  -0.031909030000000
 3 0 0 1 0 0  -0.002739420000000
 3 0 0 0 1 0  -0.008493020000000
 4 0 0 0 0 0   0.008323860000000
 0 1 0 1 0 0  -0.023647556794933
 0 1 0 2 0 0  -0.050835089105219
 0 1 0 3 0 0  -0.005904976697200
 0 1 0 0 1 0  -0.010076227215866
 0 1 0 0 2 0   0.007454083815035
 0 1 0 0 3 0   0.032169178459872
 0 1 0 0 0 2  -0.006264110000000
 0 1 0 1 1 0  -0.022328737274015
 0 1 0 2 1 0  -0.216435314892751
 0 1 0 1 2 0  -0.095980005394509
 0 1 0 1 0 2  -0.008477476841204
 0 1 0 0 1 2  -0.082961583856012
 0 2 0 0 0 0   0.204590508237577
 0 2 0 1 0 0  -0.016870430000000
 0 2 0 2 0 0  -0.018463830000000
 0 2 0 0 1 0  -0.007825720000000
 0 2 0 0 2 0  -0.016685800000000
 0 2 0 0 0 2  -0.005196506722370
 0 2 0 1 1 0  -0.027475840000000
 0 3 0 0 0 0  -0.031909030000000
 0 3 0 1 0 0  -0.008493020000000
 0 3 0 0 1 0  -0.002739420000000
 0 4 0 0 0 0   0.008323860000000
 0 0 1 1 0 0   0.052861050000000
 0 0 1 2 0 0  -0.057419250000000
 0 0 1 3 0 0   0.020844880000000
 0 0 1 0 1 0   0.052861050000000
 0 0 1 0 2 0  -0.057419250000000
 0 0 1 0 3 0   0.020844880000000
 0 0 1 0 0 2  -0.005639150000000
 0 0 1 1 1 0   0.003197180000000
 0 0 1 2 1 0  -0.003524530000000
 0 0 1 1 2 0  -0.003524530000000
 0 0 1 1 0 2  -0.010517210000000
 0 0 1 0 1 2  -0.010517210000000
 0 0 2 0 0 0   0.384646329644729
 0 0 2 1 0 0  -0.010446650000000
 0 0 2 2 0 0  -0.008139010000000
 0 0 2 0 1 0  -0.010446650000000
 0 0 2 0 2 0  -0.008139010000000
 0 0 2 0 0 2  -0.008239990000000
 0 0 2 1 1 0  -0.002968080000000
 0 0 3 0 0 0  -0.088064262479453
 0 0 3 1 0 0  -0.005054150000000
 0 0 3 0 1 0  -0.005054150000000
 0 0 4 0 0 0  -0.246523579086503
 1 1 0 0 0 0   0.004800828779265
 1 1 0 1 0 0   0.023477330000000
 1 1 0 2 0 0   0.018918420000000
 1 1 0 0 1 0   0.023477330000000
 1 1 0 0 2 0   0.018918420000000
 1 1 0 0 0 2  -0.017451643285595
 1 1 0 1 1 0   0.038962910000000
 1 0 1 0 0 0   0.012013010000000
 1 0 1 1 0 0  -0.012873560000000
 1 0 1 2 0 0  -0.003493720000000
 1 0 1 0 1 0   0.007378140000000
 1 0 1 0 2 0   0.006202150000000
 1 0 1 0 0 2   0.068807480596837
 1 0 1 1 1 0   0.002366040000000
 0 1 1 0 0 0   0.012013010000000
 0 1 1 1 0 0   0.007378140000000
 0 1 1 2 0 0   0.006202150000000
 0 1 1 0 1 0  -0.012873560000000
 0 1 1 0 2 0  -0.003493720000000
 0 1 1 0 0 2   0.068807480596837
 0 1 1 1 1 0   0.002366040000000
 2 1 0 0 0 0   0.004656390000000
 2 1 0 1 0 0   0.009208330000000
 2 1 0 0 1 0   0.010419740000000
 1 2 0 0 0 0   0.004656390000000
 1 2 0 1 0 0   0.010419740000000
 1 2 0 0 1 0   0.009208330000000
 2 0 1 0 0 0   0.019559250000000
 2 0 1 1 0 0  -0.010646500000000
 2 0 1 0 1 0   0.007206290000000
 1 0 2 0 0 0  -0.011692870000000
 1 0 2 1 0 0   0.001862120000000
 1 0 2 0 1 0  -0.007324420000000
 0 2 1 0 0 0   0.019559250000000
 0 2 1 1 0 0   0.007206290000000
 0 2 1 0 1 0  -0.010646500000000
 0 1 2 0 0 0  -0.011692870000000
 0 1 2 1 0 0  -0.007324420000000
 0 1 2 0 1 0   0.001862120000000
 1 1 1 0 0 0  -0.007762830000000
 1 1 1 1 0 0  -0.007493690000000
 1 1 1 0 1 0  -0.007493690000000
 3 1 0 0 0 0  -0.000235540000000
 1 3 0 0 0 0  -0.000235540000000
 3 0 1 0 0 0   0.015178650000000
 1 0 3 0 0 0  -0.003757390000000
 0 3 1 0 0 0   0.015178650000000
 0 1 3 0 0 0  -0.003757390000000
 2 2 0 0 0 0   0.003158280000000
 2 0 2 0 0 0  -0.014802570000000
 0 2 2 0 0 0  -0.014802570000000
 2 1 1 0 0 0  -0.005884170000000
 1 2 1 0 0 0  -0.005884170000000
 1 1 2 0 0 0   0.002610700000000
 1 0 0 0 0 0   0.000000000000000
 0 1 0 0 0 0   0.000000000000000
 0 0 1 0 0 0   0.000000000000000
 0 0 0 1 0 0   0.000000000000000
 0 0 0 0 1 0   0.000000000000000
C** ALPHA1         ALPHA2         ALPHA3
   0.9192406803   0.9192406803   0.7511771607
C**A1-DIPOLE (HARTREES)
 84
0 0 0 0 0 0  -6.73109445905446E-1
0 0 0 0 0 1  +2.91022703033761E-8
0 0 0 0 0 2  +8.82274007472141E-2
0 0 0 0 0 3  -3.98384046330772E-8
0 0 0 0 1 0  +5.48284459042461E-2
0 0 0 0 1 1  +2.68331409679457E-8
0 0 0 0 1 2  -1.40856767503424E-1
0 0 0 0 2 0  -7.47855921195837E-3
0 0 0 0 2 1  +3.47235786719732E-8
0 0 0 0 3 0  -2.39719570494432E-1
0 0 0 1 0 0  +5.48284488288539E-2
0 0 0 1 0 1  +2.67469284813315E-8
0 0 0 1 0 2  -1.40856759391931E-1
0 0 0 1 1 0  +2.02516726119153E-1
0 0 0 1 1 1  +2.69837466155382E-9
0 0 0 1 2 0  -3.88279555971756E-1
0 0 0 2 0 0  -7.47856724195457E-3
0 0 0 2 0 1  +3.4499934084012E-8
0 0 0 2 1 0  -3.88279549245066E-1
0 0 0 3 0 0  -2.39719579419963E-1
0 0 1 0 0 0  -5.38069349413816E-1
0 0 1 0 0 1  -3.26470312461138E-9
0 0 1 0 0 2  +1.6175287703246E-1
0 0 1 0 1 0  +5.790016438209E-2
0 0 1 0 1 1  -5.92299285017506E-9
0 0 1 0 2 0  +2.67398087639404E-1
0 0 1 1 0 0  +5.79001175550022E-2
0 0 1 1 0 1  -6.17199143101143E-9
0 0 1 1 1 0  -2.57205165219398E-1
0 0 1 2 0 0  +2.67398144162018E-1
0 0 2 0 0 0  +6.23628272767423E-1
0 0 2 0 0 1  -4.76997620416082E-9
0 0 2 0 1 0  -1.33169654517622E0
0 0 2 1 0 0  -1.33169635361297E0
0 0 3 0 0 0  -5.84343236494495E0
0 1 0 0 0 0  +1.9906443226975E-1
0 1 0 0 0 1  -2.89729298094764E-8
0 1 0 0 0 2  +2.65027719150038E-2
0 1 0 0 1 0  +3.8390096376832E-2
0 1 0 0 1 1  -1.61323320795584E-8
0 1 0 0 2 0  -2.00261134105071E-1
0 1 0 1 0 0  +1.5825293071824E-1
0 1 0 1 0 1  -5.32668034957718E-9
0 1 0 1 1 0  +8.75256584798009E-2
0 1 0 2 0 0  +7.38094901036003E-2
0 1 1 0 0 0  -7.47101261472041E-1
0 1 1 0 0 1  +7.42249689304356E-10
0 1 1 0 1 0  -4.76315378643065E-1
0 1 1 1 0 0  -5.94762390404286E-2
0 1 2 0 0 0  -1.87277082316654E-3
0 2 0 0 0 0  +5.13899958929913E-1
0 2 0 0 0 1  +2.78613113959542E-8
0 2 0 0 1 0  +4.57189905224453E-1
0 2 0 1 0 0  +1.03169337493101E-1
0 2 1 0 0 0  -7.70123074475106E-1
0 3 0 0 0 0  +2.21239067608511E-1
1 0 0 0 0 0  +1.99064435742265E-1
1 0 0 0 0 1  -2.8868873311317E-8
1 0 0 0 0 2  +2.65027856670922E-2
1 0 0 0 1 0  +1.58252940122664E-1
1 0 0 0 1 1  -6.10709719311098E-9
1 0 0 0 2 0  +7.38094484041161E-2
1 0 0 1 0 0  +3.83900897490806E-2
1 0 0 1 0 1  -1.55626344584197E-8
1 0 0 1 1 0  +8.75256482486403E-2
1 0 0 2 0 0  -2.00261134187523E-1
1 0 1 0 0 0  -7.47101270409345E-1
1 0 1 0 0 1  +6.19866104490938E-9
1 0 1 0 1 0  -5.9476288950283E-2
1 0 1 1 0 0  -4.76315335898867E-1
1 0 2 0 0 0  -1.87273195505855E-3
1 1 0 0 0 0  -5.02402798849716E-1
1 1 0 0 0 1  +4.70733270241883E-9
1 1 0 0 1 0  -6.40007298577996E-1
1 1 0 1 0 0  -6.40007272758848E-1
1 1 1 0 0 0  +7.77364795066193E-1
1 2 0 0 0 0  +1.07263089239913E-1
2 0 0 0 0 0  +5.13899949132658E-1
2 0 0 0 0 1  +2.50957308429548E-8
2 0 0 0 1 0  +1.0316934242978E-1
2 0 0 1 0 0  +4.57189901460693E-1
2 0 1 0 0 0  -7.70123032368743E-1
2 1 0 0 0 0  +1.0726309641191E-1
3 0 0 0 0 0  +2.21239101192652E-1
C**B2-DIPOLE (HARTREES)
 84
0 0 0 0 0 0  -1.80938972622953E-10
0 0 0 0 0 1  +6.69279348833109E-9
0 0 0 0 0 2  -7.2130910446545E-10
0 0 0 0 0 3  -9.09272001753476E-9
0 0 0 0 1 0  +8.87789367776972E-2
0 0 0 0 1 1  +6.44010942073775E-9
0 0 0 0 1 2  +1.22841406405654E-2
0 0 0 0 2 0  +1.22024104401154E-1
0 0 0 0 2 1  +8.7406707049999E-9
0 0 0 0 3 0  -3.7970501706835E-2
0 0 0 1 0 0  -8.87789163426672E-2
0 0 0 1 0 1  +5.80258489699569E-9
0 0 0 1 0 2  -1.22841506698423E-2
0 0 0 1 1 0  +6.86163912636139E-9
0 0 0 1 1 1  +1.07175328777209E-9
0 0 0 1 2 0  +5.32235388746088E-2
0 0 0 2 0 0  -1.22024108680441E-1
0 0 0 2 0 1  +5.89508619113419E-9
0 0 0 2 1 0  -5.32236413801991E-2
0 0 0 3 0 0  +3.79704563526833E-2
0 0 1 0 0 0  +7.0696584529163E-9
0 0 1 0 0 1  -9.89665112353744E-10
0 0 1 0 0 2  +1.16752872081902E-8
0 0 1 0 1 0  -3.32878403428434E-2
0 0 1 0 1 1  -3.16102296690187E-9
0 0 1 0 2 0  +1.57583242315777E-1
0 0 1 1 0 0  +3.32878682637466E-2
0 0 1 1 0 1  -3.63021045734961E-9
0 0 1 1 1 0  +2.1776295057647E-8
0 0 1 2 0 0  -1.57583092231011E-1
0 0 2 0 0 0  +3.42777643661478E-8
0 0 2 0 0 1  -2.32194134080047E-9
0 0 2 0 1 0  +1.39485526815375E-1
0 0 2 1 0 0  -1.39486074933821E-1
0 0 3 0 0 0  -8.1796871634522E-7
0 1 0 0 0 0  +1.43414402047535E-1
0 1 0 0 0 1  -6.0871898824328E-9
0 1 0 0 0 2  +5.8445203329104E-2
0 1 0 0 1 0  +3.18495185772149E-1
0 1 0 0 1 1  -2.56233412057703E-9
0 1 0 0 2 0  -3.38628895228659E-1
0 1 0 1 0 0  +4.12262822332407E-1
0 1 0 1 0 1  +1.2141967949218E-9
0 1 0 1 1 0  -6.79819959548178E-2
0 1 0 2 0 0  +1.28275939901044E-1
0 1 1 0 0 0  -4.32709800000199E-1
0 1 1 0 0 1  +3.12051564547443E-9
0 1 1 0 1 0  +1.17690056770025E-1
0 1 1 1 0 0  -1.04987217013732E-1
0 1 2 0 0 0  +5.63832500236554E-1
0 2 0 0 0 0  +3.7739487484383E-1
0 2 0 0 0 1  +4.67654619421387E-9
0 2 0 0 1 0  -9.59103409132521E-2
0 2 0 1 0 0  +6.66045278315473E-2
0 2 1 0 0 0  -5.64281366950315E-1
0 3 0 0 0 0  +2.579149068483E-2
1 0 0 0 0 0  -1.43414405479924E-1
1 0 0 0 0 1  -7.12341009844081E-9
1 0 0 0 0 2  -5.8445202465224E-2
1 0 0 0 1 0  -4.12262837771786E-1
1 0 0 0 1 1  -4.22599405532508E-9
1 0 0 0 2 0  -1.28275898401886E-1
1 0 0 1 0 0  -3.18495193971505E-1
1 0 0 1 0 1  -4.36411947749247E-9
1 0 0 1 1 0  +6.79820122013041E-2
1 0 0 2 0 0  +3.38628883439472E-1
1 0 1 0 0 0  +4.32709759459663E-1
1 0 1 0 0 1  +8.49300245294277E-10
1 0 1 0 1 0  +1.04987276244502E-1
1 0 1 1 0 0  -1.1769012633276E-1
1 0 2 0 0 0  -5.63832422667401E-1
1 1 0 0 0 0  +7.77969359973838E-10
1 1 0 0 0 1  +7.05846803929228E-11
1 1 0 0 1 0  +6.10688656126452E-2
1 1 0 1 0 0  -6.10687685525765E-2
1 1 1 0 0 0  +1.48981848801887E-7
1 2 0 0 0 0  +5.15572781663007E-1
2 0 0 0 0 0  -3.7739489235149E-1
2 0 0 0 0 1  +8.47453686897132E-9
2 0 0 0 1 0  -6.66045572893449E-2
2 0 0 1 0 0  +9.59102540675491E-2
2 0 1 0 0 0  +5.64281420944622E-1
2 1 0 0 0 0  -5.15572797426611E-1
3 0 0 0 0 0  -2.57914314785218E-2
C**B1-DIPOLE (HARTREES)
 84
0 0 0 0 0 0  +3.90110423101667E-9
0 0 0 0 0 1  -2.03103656990728E-1
0 0 0 0 0 2  -5.47140807865297E-9
0 0 0 0 0 3  +2.39330120022465E-3
0 0 0 0 1 0  -1.46952882793166E-8
0 0 0 0 1 1  +1.01764432178831E-1
0 0 0 0 1 2  +1.87039001973855E-8
0 0 0 0 2 0  +6.77121452756225E-9
0 0 0 0 2 1  +2.52332452346599E-2
0 0 0 0 3 0  +3.54881065939067E-8
0 0 0 1 0 0  +4.26017598833515E-10
0 0 0 1 0 1  +1.0176443919415E-1
0 0 0 1 0 2  +9.02046698649137E-9
0 0 0 1 1 0  +1.3782899143884E-9
0 0 0 1 1 1  -1.25944821910101E-1
0 0 0 1 2 0  +2.2351968452099E-8
0 0 0 2 0 0  +5.84169433450163E-9
0 0 0 2 0 1  +2.52332395879614E-2
0 0 0 2 1 0  +5.62492290621089E-8
0 0 0 3 0 0  +3.91169917602134E-9
0 0 1 0 0 0  +5.33663843267313E-8
0 0 1 0 0 1  -4.83502542389258E-2
0 0 1 0 0 2  -1.68477801903358E-8
0 0 1 0 1 0  +2.28604553264029E-8
0 0 1 0 1 1  -2.69489288643795E-2
0 0 1 0 2 0  +4.90798952762256E-10
0 0 1 1 0 0  +2.60529233373225E-8
0 0 1 1 0 1  -2.69489763295511E-2
0 0 1 1 1 0  -1.96463143156811E-7
0 0 1 2 0 0  -7.63078257971405E-8
0 0 2 0 0 0  +1.10063427911385E-7
0 0 2 0 0 1  +5.7668249721167E-3
0 0 2 0 1 0  -4.62912275469749E-7
0 0 2 1 0 0  -6.11950363104265E-7
0 0 3 0 0 0  -1.93015302142802E-6
0 1 0 0 0 0  +1.35483487593451E-9
0 1 0 0 0 1  -5.65695674330826E-2
0 1 0 0 0 2  -6.02959074338873E-9
0 1 0 0 1 0  -1.16824684866779E-9
0 1 0 0 1 1  +4.95378628992237E-2
0 1 0 0 2 0  -3.39622516466796E-8
0 1 0 1 0 0  +3.22033948914671E-9
0 1 0 1 0 1  +1.52458061525252E-1
0 1 0 1 1 0  -2.33873168150725E-8
0 1 0 2 0 0  +2.02743418015342E-8
0 1 1 0 0 0  +1.26425918966832E-8
0 1 1 0 0 1  -1.25630545822156E-1
0 1 1 0 1 0  -4.94633449172496E-8
0 1 1 1 0 0  -1.01965460915815E-7
0 1 2 0 0 0  -6.63228929478351E-8
0 2 0 0 0 0  -1.07946083181539E-8
0 2 0 0 0 1  +1.18927395189765E-1
0 2 0 0 1 0  +3.88591052972492E-8
0 2 0 1 0 0  -3.30910555942046E-8
0 2 1 0 0 0  +8.41798299997153E-9
0 3 0 0 0 0  +3.48161474121513E-8
1 0 0 0 0 0  +9.03541528798133E-9
1 0 0 0 0 1  -5.65695668233308E-2
1 0 0 0 0 2  -1.34455339898438E-8
1 0 0 0 1 0  -1.78573529281484E-8
1 0 0 0 1 1  +1.52458066197458E-1
1 0 0 0 2 0  +4.75870829361473E-10
1 0 0 1 0 0  +5.11188694039174E-9
1 0 0 1 0 1  +4.95378092533015E-2
1 0 0 1 1 0  -2.7347972091796E-8
1 0 0 2 0 0  -5.24945920822793E-8
1 0 1 0 0 0  +2.45661849858268E-8
1 0 1 0 0 1  -1.25630537856088E-1
1 0 1 0 1 0  -7.59566146171492E-8
1 0 1 1 0 0  -1.89567047637897E-8
1 0 2 0 0 0  -1.72538240847858E-7
1 1 0 0 0 0  +9.50388324008331E-9
1 1 0 0 0 1  -9.39802277577126E-2
1 1 0 0 1 0  +4.01014751620753E-8
1 1 0 1 0 0  +9.37960568355548E-9
1 1 1 0 0 0  +1.14118307091113E-7
1 2 0 0 0 0  -4.27985627257898E-8
2 0 0 0 0 0  +1.12696974770624E-9
2 0 0 0 0 1  +1.18927400145504E-1
2 0 0 0 1 0  +7.56985946414281E-8
2 0 0 1 0 0  +2.30329163684695E-8
2 0 1 0 0 0  -6.70073116211059E-8
2 1 0 0 0 0  -2.56090476146695E-8
3 0 0 0 0 0  +4.5550068150875E-9
